30
Lattice="7.636753236814714 0.0 0.0 3.818376618407357 6.613622305514581 0.0 0.0 0.0 19.156921938165304" Properties=species:S:1:pos:R:3:tags:I:1:momenta:R:3:mlff_forces:R:3:mlff_forces_var:R:3:forces:R:3 mlff_energy=-45582.214857807616 mlff_energy_var=0.0002251601456194189 energy=-45564.65234375 stress="-0.0001711845980025828 -2.935779411927797e-05 -6.312030018307269e-05 -2.935779411927797e-05 0.0007772115641273558 -0.0010655501391738653 -6.312030018307269e-05 -0.0010655501391738653 0.0026007583364844322" free_energy=-45564.65234375 pbc="T T T"
Cu       1.23012529       0.64545696      -0.00283942        3      -2.11581186       2.10496657      -2.00649055       0.00162816       0.00184012      -0.00108710       0.00000040       0.00000119       0.00000376      -0.00042913      -0.00047285       0.00432106
Cu       3.78489752       0.64539800      -0.00280420        3       0.34500527       1.17975471      -2.89052666      -0.00478478      -0.00459625      -0.00315624       0.00000038       0.00000116       0.00000381      -0.00425875       0.00045312       0.00393869
Cu       6.32613529       0.64487960       0.07338206        3      -0.45166905      -0.80828218      -1.32425984       0.00463042      -0.00185257      -0.00152446       0.00000000       0.00000000       0.00000223      -0.00218274      -0.00327526      -0.03003425
Cu       2.50665242       2.84889027      -0.01638514        3      -1.45156136      -2.92794587       0.57686826      -0.00060578       0.00386977      -0.00167700       0.00000000       0.00000000       0.00000153       0.00135676      -0.00285998      -0.00135155
Cu       5.05393357       2.84458660      -0.00411817        3       0.77280677      -1.97400361       0.85770679       0.00176051       0.00007893       0.00056006       0.00000091       0.00000062       0.00000371      -0.00058767      -0.00239972       0.00730402
Cu       7.59745840       2.84482549      -0.00328364        3      -1.69522609      -0.08906909      -0.72621386      -0.00389004      -0.00069809       0.00260051       0.00000096       0.00000060       0.00000369      -0.00408852      -0.00296095       0.00634752
Cu       3.77666639       5.05684632      -0.00293166        3      -0.87236119      -0.33267299      -1.62339487      -0.00067680       0.00210300      -0.00053383       0.00000098       0.00000051       0.00000370      -0.00026265       0.00242519       0.00064873
Cu       6.32541272       5.05348424      -0.01066467        3       0.06024085      -1.55989642       1.49140335       0.00208945       0.00100581       0.00462279       0.00000000       0.00000000       0.00000395      -0.00085184       0.00171918      -0.02385498
Cu       8.87424251       5.05736708      -0.00241336        3      -0.02486536       0.71566091       0.02578951      -0.00872375      -0.00155719      -0.00074246       0.00000093       0.00000054       0.00000367      -0.00217311      -0.00002919       0.00129931
Cu      -0.01513984       1.39345716       2.12422144        2       0.04252143       0.11485531      -1.65361086       0.00015676       0.00130690      -0.00285909       0.00000363       0.00000124       0.00000104      -0.02387940      -0.00864216      -0.01463944
Cu       2.50570987       1.38478417       2.07912625        2      -0.08706343      -0.18742785       1.08518334      -0.00529220       0.00617485       0.00829708       0.00000000       0.00000718       0.00000161      -0.00136374       0.00861551      -0.02029610
Cu       5.02635626       1.39329683       2.12306231        2      -3.22591771       0.39423237      -2.73770444      -0.00292616      -0.00366301      -0.00203580       0.00000350       0.00000125       0.00000096       0.02105188      -0.00631861      -0.01250385
Cu       1.23714685       3.58023945       2.07893713        2       0.88828462       0.38583389      -0.14138523      -0.00319056      -0.00601190      -0.00265057       0.00000528       0.00000186       0.00000168       0.02736049       0.00795706       0.01497752
Cu       3.77312703       3.58086751       2.07781054        2      -0.40871516      -0.16464392       1.73934592       0.00089826      -0.00123045       0.00490531       0.00000554       0.00000186       0.00000180      -0.02671771       0.00404790       0.01634486
Cu       6.32352135       3.57687470       2.06240576        2      -0.85310500       1.57456351       0.04114870       0.00010312      -0.00141220      -0.00690717       0.00000000       0.00000169       0.00000167      -0.00063850      -0.00661673       0.02894660
Cu       2.50477369       5.75954806       2.12349818        2       1.04373789      -0.22566485       0.85706907      -0.00597918      -0.00343332      -0.00100041       0.00000000       0.00000474       0.00000090       0.00199654       0.00152676      -0.01649326
Cu       5.04537793       5.79106689       2.06338232        2      -2.02651775      -0.35798052       0.13345028       0.00279702      -0.00530805      -0.00598767       0.00000124       0.00000039       0.00000162       0.00270763      -0.00854668       0.00296552
Cu       7.60137035       5.79090183       2.06380000        2      -1.68143899       1.40572736      -0.42967335       0.00011305      -0.00317005      -0.00558253       0.00000112       0.00000035       0.00000162      -0.00285815      -0.00869666       0.00224467
Cu      -0.03920388      -0.09377505       4.16113711        1       2.34003015       0.40013739       1.55176258       0.00533783       0.00086806       0.00253473       0.00000168       0.00000048       0.00000556      -0.00777908       0.00888667      -0.00256023
Cu       2.50285216      -0.11512036       4.12365337        1      -0.06513701       0.36549052       0.61234548      -0.00168830       0.00838334      -0.00274752       0.00000000       0.00000047       0.00000237       0.00276255       0.19025683       0.11264847
Cu       5.04519346      -0.09351300       4.16067757        1       0.22090578      -0.39710500      -1.14193681       0.00214192      -0.00543781       0.00139921       0.00000171       0.00000061       0.00000563       0.00938123       0.00904536      -0.00217518
Cu       1.24281062       2.11922669       4.23595439        1       0.13471938       1.21676427      -0.98618520       0.00308035      -0.00019577      -0.00347087       0.00000216       0.00000085       0.00000343       0.17689264      -0.10358668       0.23807223
Cu       3.76363201       2.12026338       4.23464448        1      -0.34210789      -0.75568890      -1.24890294      -0.00549910       0.00276394       0.00275126       0.00000203       0.00000062       0.00000353      -0.17468253      -0.10780943       0.23974857
Cu       6.32138012       2.11688383       4.16130221        1       0.86258898      -0.76665780       0.86236434       0.00616695       0.00309493      -0.00116423       0.00000000       0.00000217       0.00000571       0.00238948       0.00561132      -0.01892109
Cu       2.50232493       4.30335131       4.23456391        1      -0.18228744      -1.39036424       0.32135504       0.00405311      -0.00311973      -0.00066282       0.00000000       0.00000247       0.00000330       0.00435095      -0.38824701       1.10046625
Cu       5.06836566       4.32908755       4.12280387        1      -2.30850824      -1.04233337      -1.19940055       0.00027617       0.00352981       0.00234422       0.00000044       0.00000014       0.00000266      -0.00958399      -0.00340683       0.01638903
Cu       7.57393027       4.32896367       4.12313678        1      -0.97014378      -0.08938366       0.17663704       0.00885002       0.00093907       0.00149532       0.00000036       0.00000012       0.00000256       0.01354012      -0.00384658       0.01714371
C        2.50337745       2.84502490       5.93266525        0       1.98932151       0.06168835      -0.02928818       0.00350839       0.00536231       0.00108153       0.00000005       0.00000011       0.00002589      -0.00686920      -0.23190735      -2.16205454
H        3.38746504       2.33590523       6.36104800        0      -0.04206375       0.32742487      -0.14625047      -0.00147314       0.00515643       0.00217500       0.00000252       0.00000091       0.00000147       0.15648049       0.32289582       0.24652934
H        1.61939495       2.33465963       6.36058679        0      -0.08212989      -0.23184400       0.26989120      -0.00486612       0.00245619       0.00262543       0.00000240       0.00000095       0.00000152      -0.15106404       0.32618201       0.24454823
